
500 atoms

1 atom types

 0.000000 31.215 xlo xhi
 0.000000 31.215 ylo yhi
 0.000000 31.215 zlo zhi

 Masses

 1  39.948001

 Atoms

           1 1   0.00000000       0.00000000       0.00000000    
           2 1   3.12142015       3.12142015       0.00000000    
           3 1   3.12142015       0.00000000       3.12142015    
           4 1   0.00000000       3.12142015       3.12142015    
           5 1   0.00000000       0.00000000       6.24284029    
           6 1   3.12142015       3.12142015       6.24284029    
           7 1   3.12142015       0.00000000       9.36426067    
           8 1   0.00000000       3.12142015       9.36426067    
           9 1   0.00000000       0.00000000       12.4856806    
          10 1   3.12142015       3.12142015       12.4856806    
          11 1   3.12142015       0.00000000       15.6071005    
          12 1   0.00000000       3.12142015       15.6071005    
          13 1   0.00000000       0.00000000       18.7285213    
          14 1   3.12142015       3.12142015       18.7285213    
          15 1   3.12142015       0.00000000       21.8499413    
          16 1   0.00000000       3.12142015       21.8499413    
          17 1   0.00000000       0.00000000       24.9713612    
          18 1   3.12142015       3.12142015       24.9713612    
          19 1   3.12142015       0.00000000       28.0927811    
          20 1   0.00000000       3.12142015       28.0927811    
          21 1   0.00000000       6.24284029       0.00000000    
          22 1   3.12142015       9.36426067       0.00000000    
          23 1   3.12142015       6.24284029       3.12142015    
          24 1   0.00000000       9.36426067       3.12142015    
          25 1   0.00000000       6.24284029       6.24284029    
          26 1   3.12142015       9.36426067       6.24284029    
          27 1   3.12142015       6.24284029       9.36426067    
          28 1   0.00000000       9.36426067       9.36426067    
          29 1   0.00000000       6.24284029       12.4856806    
          30 1   3.12142015       9.36426067       12.4856806    
          31 1   3.12142015       6.24284029       15.6071005    
          32 1   0.00000000       9.36426067       15.6071005    
          33 1   0.00000000       6.24284029       18.7285213    
          34 1   3.12142015       9.36426067       18.7285213    
          35 1   3.12142015       6.24284029       21.8499413    
          36 1   0.00000000       9.36426067       21.8499413    
          37 1   0.00000000       6.24284029       24.9713612    
          38 1   3.12142015       9.36426067       24.9713612    
          39 1   3.12142015       6.24284029       28.0927811    
          40 1   0.00000000       9.36426067       28.0927811    
          41 1   0.00000000       12.4856806       0.00000000    
          42 1   3.12142015       15.6071005       0.00000000    
          43 1   3.12142015       12.4856806       3.12142015    
          44 1   0.00000000       15.6071005       3.12142015    
          45 1   0.00000000       12.4856806       6.24284029    
          46 1   3.12142015       15.6071005       6.24284029    
          47 1   3.12142015       12.4856806       9.36426067    
          48 1   0.00000000       15.6071005       9.36426067    
          49 1   0.00000000       12.4856806       12.4856806    
          50 1   3.12142015       15.6071005       12.4856806    
          51 1   3.12142015       12.4856806       15.6071005    
          52 1   0.00000000       15.6071005       15.6071005    
          53 1   0.00000000       12.4856806       18.7285213    
          54 1   3.12142015       15.6071005       18.7285213    
          55 1   3.12142015       12.4856806       21.8499413    
          56 1   0.00000000       15.6071005       21.8499413    
          57 1   0.00000000       12.4856806       24.9713612    
          58 1   3.12142015       15.6071005       24.9713612    
          59 1   3.12142015       12.4856806       28.0927811    
          60 1   0.00000000       15.6071005       28.0927811    
          61 1   0.00000000       18.7285213       0.00000000    
          62 1   3.12142015       21.8499413       0.00000000    
          63 1   3.12142015       18.7285213       3.12142015    
          64 1   0.00000000       21.8499413       3.12142015    
          65 1   0.00000000       18.7285213       6.24284029    
          66 1   3.12142015       21.8499413       6.24284029    
          67 1   3.12142015       18.7285213       9.36426067    
          68 1   0.00000000       21.8499413       9.36426067    
          69 1   0.00000000       18.7285213       12.4856806    
          70 1   3.12142015       21.8499413       12.4856806    
          71 1   3.12142015       18.7285213       15.6071005    
          72 1   0.00000000       21.8499413       15.6071005    
          73 1   0.00000000       18.7285213       18.7285213    
          74 1   3.12142015       21.8499413       18.7285213    
          75 1   3.12142015       18.7285213       21.8499413    
          76 1   0.00000000       21.8499413       21.8499413    
          77 1   0.00000000       18.7285213       24.9713612    
          78 1   3.12142015       21.8499413       24.9713612    
          79 1   3.12142015       18.7285213       28.0927811    
          80 1   0.00000000       21.8499413       28.0927811    
          81 1   0.00000000       24.9713612       0.00000000    
          82 1   3.12142015       28.0927811       0.00000000    
          83 1   3.12142015       24.9713612       3.12142015    
          84 1   0.00000000       28.0927811       3.12142015    
          85 1   0.00000000       24.9713612       6.24284029    
          86 1   3.12142015       28.0927811       6.24284029    
          87 1   3.12142015       24.9713612       9.36426067    
          88 1   0.00000000       28.0927811       9.36426067    
          89 1   0.00000000       24.9713612       12.4856806    
          90 1   3.12142015       28.0927811       12.4856806    
          91 1   3.12142015       24.9713612       15.6071005    
          92 1   0.00000000       28.0927811       15.6071005    
          93 1   0.00000000       24.9713612       18.7285213    
          94 1   3.12142015       28.0927811       18.7285213    
          95 1   3.12142015       24.9713612       21.8499413    
          96 1   0.00000000       28.0927811       21.8499413    
          97 1   0.00000000       24.9713612       24.9713612    
          98 1   3.12142015       28.0927811       24.9713612    
          99 1   3.12142015       24.9713612       28.0927811    
         100 1   0.00000000       28.0927811       28.0927811    
         101 1   6.24284029       0.00000000       0.00000000    
         102 1   9.36426067       3.12142015       0.00000000    
         103 1   9.36426067       0.00000000       3.12142015    
         104 1   6.24284029       3.12142015       3.12142015    
         105 1   6.24284029       0.00000000       6.24284029    
         106 1   9.36426067       3.12142015       6.24284029    
         107 1   9.36426067       0.00000000       9.36426067    
         108 1   6.24284029       3.12142015       9.36426067    
         109 1   6.24284029       0.00000000       12.4856806    
         110 1   9.36426067       3.12142015       12.4856806    
         111 1   9.36426067       0.00000000       15.6071005    
         112 1   6.24284029       3.12142015       15.6071005    
         113 1   6.24284029       0.00000000       18.7285213    
         114 1   9.36426067       3.12142015       18.7285213    
         115 1   9.36426067       0.00000000       21.8499413    
         116 1   6.24284029       3.12142015       21.8499413    
         117 1   6.24284029       0.00000000       24.9713612    
         118 1   9.36426067       3.12142015       24.9713612    
         119 1   9.36426067       0.00000000       28.0927811    
         120 1   6.24284029       3.12142015       28.0927811    
         121 1   6.24284029       6.24284029       0.00000000    
         122 1   9.36426067       9.36426067       0.00000000    
         123 1   9.36426067       6.24284029       3.12142015    
         124 1   6.24284029       9.36426067       3.12142015    
         125 1   6.24284029       6.24284029       6.24284029    
         126 1   9.36426067       9.36426067       6.24284029    
         127 1   9.36426067       6.24284029       9.36426067    
         128 1   6.24284029       9.36426067       9.36426067    
         129 1   6.24284029       6.24284029       12.4856806    
         130 1   9.36426067       9.36426067       12.4856806    
         131 1   9.36426067       6.24284029       15.6071005    
         132 1   6.24284029       9.36426067       15.6071005    
         133 1   6.24284029       6.24284029       18.7285213    
         134 1   9.36426067       9.36426067       18.7285213    
         135 1   9.36426067       6.24284029       21.8499413    
         136 1   6.24284029       9.36426067       21.8499413    
         137 1   6.24284029       6.24284029       24.9713612    
         138 1   9.36426067       9.36426067       24.9713612    
         139 1   9.36426067       6.24284029       28.0927811    
         140 1   6.24284029       9.36426067       28.0927811    
         141 1   6.24284029       12.4856806       0.00000000    
         142 1   9.36426067       15.6071005       0.00000000    
         143 1   9.36426067       12.4856806       3.12142015    
         144 1   6.24284029       15.6071005       3.12142015    
         145 1   6.24284029       12.4856806       6.24284029    
         146 1   9.36426067       15.6071005       6.24284029    
         147 1   9.36426067       12.4856806       9.36426067    
         148 1   6.24284029       15.6071005       9.36426067    
         149 1   6.24284029       12.4856806       12.4856806    
         150 1   9.36426067       15.6071005       12.4856806    
         151 1   9.36426067       12.4856806       15.6071005    
         152 1   6.24284029       15.6071005       15.6071005    
         153 1   6.24284029       12.4856806       18.7285213    
         154 1   9.36426067       15.6071005       18.7285213    
         155 1   9.36426067       12.4856806       21.8499413    
         156 1   6.24284029       15.6071005       21.8499413    
         157 1   6.24284029       12.4856806       24.9713612    
         158 1   9.36426067       15.6071005       24.9713612    
         159 1   9.36426067       12.4856806       28.0927811    
         160 1   6.24284029       15.6071005       28.0927811    
         161 1   6.24284029       18.7285213       0.00000000    
         162 1   9.36426067       21.8499413       0.00000000    
         163 1   9.36426067       18.7285213       3.12142015    
         164 1   6.24284029       21.8499413       3.12142015    
         165 1   6.24284029       18.7285213       6.24284029    
         166 1   9.36426067       21.8499413       6.24284029    
         167 1   9.36426067       18.7285213       9.36426067    
         168 1   6.24284029       21.8499413       9.36426067    
         169 1   6.24284029       18.7285213       12.4856806    
         170 1   9.36426067       21.8499413       12.4856806    
         171 1   9.36426067       18.7285213       15.6071005    
         172 1   6.24284029       21.8499413       15.6071005    
         173 1   6.24284029       18.7285213       18.7285213    
         174 1   9.36426067       21.8499413       18.7285213    
         175 1   9.36426067       18.7285213       21.8499413    
         176 1   6.24284029       21.8499413       21.8499413    
         177 1   6.24284029       18.7285213       24.9713612    
         178 1   9.36426067       21.8499413       24.9713612    
         179 1   9.36426067       18.7285213       28.0927811    
         180 1   6.24284029       21.8499413       28.0927811    
         181 1   6.24284029       24.9713612       0.00000000    
         182 1   9.36426067       28.0927811       0.00000000    
         183 1   9.36426067       24.9713612       3.12142015    
         184 1   6.24284029       28.0927811       3.12142015    
         185 1   6.24284029       24.9713612       6.24284029    
         186 1   9.36426067       28.0927811       6.24284029    
         187 1   9.36426067       24.9713612       9.36426067    
         188 1   6.24284029       28.0927811       9.36426067    
         189 1   6.24284029       24.9713612       12.4856806    
         190 1   9.36426067       28.0927811       12.4856806    
         191 1   9.36426067       24.9713612       15.6071005    
         192 1   6.24284029       28.0927811       15.6071005    
         193 1   6.24284029       24.9713612       18.7285213    
         194 1   9.36426067       28.0927811       18.7285213    
         195 1   9.36426067       24.9713612       21.8499413    
         196 1   6.24284029       28.0927811       21.8499413    
         197 1   6.24284029       24.9713612       24.9713612    
         198 1   9.36426067       28.0927811       24.9713612    
         199 1   9.36426067       24.9713612       28.0927811    
         200 1   6.24284029       28.0927811       28.0927811    
         201 1   12.4856806       0.00000000       0.00000000    
         202 1   15.6071005       3.12142015       0.00000000    
         203 1   15.6071005       0.00000000       3.12142015    
         204 1   12.4856806       3.12142015       3.12142015    
         205 1   12.4856806       0.00000000       6.24284029    
         206 1   15.6071005       3.12142015       6.24284029    
         207 1   15.6071005       0.00000000       9.36426067    
         208 1   12.4856806       3.12142015       9.36426067    
         209 1   12.4856806       0.00000000       12.4856806    
         210 1   15.6071005       3.12142015       12.4856806    
         211 1   15.6071005       0.00000000       15.6071005    
         212 1   12.4856806       3.12142015       15.6071005    
         213 1   12.4856806       0.00000000       18.7285213    
         214 1   15.6071005       3.12142015       18.7285213    
         215 1   15.6071005       0.00000000       21.8499413    
         216 1   12.4856806       3.12142015       21.8499413    
         217 1   12.4856806       0.00000000       24.9713612    
         218 1   15.6071005       3.12142015       24.9713612    
         219 1   15.6071005       0.00000000       28.0927811    
         220 1   12.4856806       3.12142015       28.0927811    
         221 1   12.4856806       6.24284029       0.00000000    
         222 1   15.6071005       9.36426067       0.00000000    
         223 1   15.6071005       6.24284029       3.12142015    
         224 1   12.4856806       9.36426067       3.12142015    
         225 1   12.4856806       6.24284029       6.24284029    
         226 1   15.6071005       9.36426067       6.24284029    
         227 1   15.6071005       6.24284029       9.36426067    
         228 1   12.4856806       9.36426067       9.36426067    
         229 1   12.4856806       6.24284029       12.4856806    
         230 1   15.6071005       9.36426067       12.4856806    
         231 1   15.6071005       6.24284029       15.6071005    
         232 1   12.4856806       9.36426067       15.6071005    
         233 1   12.4856806       6.24284029       18.7285213    
         234 1   15.6071005       9.36426067       18.7285213    
         235 1   15.6071005       6.24284029       21.8499413    
         236 1   12.4856806       9.36426067       21.8499413    
         237 1   12.4856806       6.24284029       24.9713612    
         238 1   15.6071005       9.36426067       24.9713612    
         239 1   15.6071005       6.24284029       28.0927811    
         240 1   12.4856806       9.36426067       28.0927811    
         241 1   12.4856806       12.4856806       0.00000000    
         242 1   15.6071005       15.6071005       0.00000000    
         243 1   15.6071005       12.4856806       3.12142015    
         244 1   12.4856806       15.6071005       3.12142015    
         245 1   12.4856806       12.4856806       6.24284029    
         246 1   15.6071005       15.6071005       6.24284029    
         247 1   15.6071005       12.4856806       9.36426067    
         248 1   12.4856806       15.6071005       9.36426067    
         249 1   12.4856806       12.4856806       12.4856806    
         250 1   15.6071005       15.6071005       12.4856806    
         251 1   15.6071005       12.4856806       15.6071005    
         252 1   12.4856806       15.6071005       15.6071005    
         253 1   12.4856806       12.4856806       18.7285213    
         254 1   15.6071005       15.6071005       18.7285213    
         255 1   15.6071005       12.4856806       21.8499413    
         256 1   12.4856806       15.6071005       21.8499413    
         257 1   12.4856806       12.4856806       24.9713612    
         258 1   15.6071005       15.6071005       24.9713612    
         259 1   15.6071005       12.4856806       28.0927811    
         260 1   12.4856806       15.6071005       28.0927811    
         261 1   12.4856806       18.7285213       0.00000000    
         262 1   15.6071005       21.8499413       0.00000000    
         263 1   15.6071005       18.7285213       3.12142015    
         264 1   12.4856806       21.8499413       3.12142015    
         265 1   12.4856806       18.7285213       6.24284029    
         266 1   15.6071005       21.8499413       6.24284029    
         267 1   15.6071005       18.7285213       9.36426067    
         268 1   12.4856806       21.8499413       9.36426067    
         269 1   12.4856806       18.7285213       12.4856806    
         270 1   15.6071005       21.8499413       12.4856806    
         271 1   15.6071005       18.7285213       15.6071005    
         272 1   12.4856806       21.8499413       15.6071005    
         273 1   12.4856806       18.7285213       18.7285213    
         274 1   15.6071005       21.8499413       18.7285213    
         275 1   15.6071005       18.7285213       21.8499413    
         276 1   12.4856806       21.8499413       21.8499413    
         277 1   12.4856806       18.7285213       24.9713612    
         278 1   15.6071005       21.8499413       24.9713612    
         279 1   15.6071005       18.7285213       28.0927811    
         280 1   12.4856806       21.8499413       28.0927811    
         281 1   12.4856806       24.9713612       0.00000000    
         282 1   15.6071005       28.0927811       0.00000000    
         283 1   15.6071005       24.9713612       3.12142015    
         284 1   12.4856806       28.0927811       3.12142015    
         285 1   12.4856806       24.9713612       6.24284029    
         286 1   15.6071005       28.0927811       6.24284029    
         287 1   15.6071005       24.9713612       9.36426067    
         288 1   12.4856806       28.0927811       9.36426067    
         289 1   12.4856806       24.9713612       12.4856806    
         290 1   15.6071005       28.0927811       12.4856806    
         291 1   15.6071005       24.9713612       15.6071005    
         292 1   12.4856806       28.0927811       15.6071005    
         293 1   12.4856806       24.9713612       18.7285213    
         294 1   15.6071005       28.0927811       18.7285213    
         295 1   15.6071005       24.9713612       21.8499413    
         296 1   12.4856806       28.0927811       21.8499413    
         297 1   12.4856806       24.9713612       24.9713612    
         298 1   15.6071005       28.0927811       24.9713612    
         299 1   15.6071005       24.9713612       28.0927811    
         300 1   12.4856806       28.0927811       28.0927811    
         301 1   18.7285213       0.00000000       0.00000000    
         302 1   21.8499413       3.12142015       0.00000000    
         303 1   21.8499413       0.00000000       3.12142015    
         304 1   18.7285213       3.12142015       3.12142015    
         305 1   18.7285213       0.00000000       6.24284029    
         306 1   21.8499413       3.12142015       6.24284029    
         307 1   21.8499413       0.00000000       9.36426067    
         308 1   18.7285213       3.12142015       9.36426067    
         309 1   18.7285213       0.00000000       12.4856806    
         310 1   21.8499413       3.12142015       12.4856806    
         311 1   21.8499413       0.00000000       15.6071005    
         312 1   18.7285213       3.12142015       15.6071005    
         313 1   18.7285213       0.00000000       18.7285213    
         314 1   21.8499413       3.12142015       18.7285213    
         315 1   21.8499413       0.00000000       21.8499413    
         316 1   18.7285213       3.12142015       21.8499413    
         317 1   18.7285213       0.00000000       24.9713612    
         318 1   21.8499413       3.12142015       24.9713612    
         319 1   21.8499413       0.00000000       28.0927811    
         320 1   18.7285213       3.12142015       28.0927811    
         321 1   18.7285213       6.24284029       0.00000000    
         322 1   21.8499413       9.36426067       0.00000000    
         323 1   21.8499413       6.24284029       3.12142015    
         324 1   18.7285213       9.36426067       3.12142015    
         325 1   18.7285213       6.24284029       6.24284029    
         326 1   21.8499413       9.36426067       6.24284029    
         327 1   21.8499413       6.24284029       9.36426067    
         328 1   18.7285213       9.36426067       9.36426067    
         329 1   18.7285213       6.24284029       12.4856806    
         330 1   21.8499413       9.36426067       12.4856806    
         331 1   21.8499413       6.24284029       15.6071005    
         332 1   18.7285213       9.36426067       15.6071005    
         333 1   18.7285213       6.24284029       18.7285213    
         334 1   21.8499413       9.36426067       18.7285213    
         335 1   21.8499413       6.24284029       21.8499413    
         336 1   18.7285213       9.36426067       21.8499413    
         337 1   18.7285213       6.24284029       24.9713612    
         338 1   21.8499413       9.36426067       24.9713612    
         339 1   21.8499413       6.24284029       28.0927811    
         340 1   18.7285213       9.36426067       28.0927811    
         341 1   18.7285213       12.4856806       0.00000000    
         342 1   21.8499413       15.6071005       0.00000000    
         343 1   21.8499413       12.4856806       3.12142015    
         344 1   18.7285213       15.6071005       3.12142015    
         345 1   18.7285213       12.4856806       6.24284029    
         346 1   21.8499413       15.6071005       6.24284029    
         347 1   21.8499413       12.4856806       9.36426067    
         348 1   18.7285213       15.6071005       9.36426067    
         349 1   18.7285213       12.4856806       12.4856806    
         350 1   21.8499413       15.6071005       12.4856806    
         351 1   21.8499413       12.4856806       15.6071005    
         352 1   18.7285213       15.6071005       15.6071005    
         353 1   18.7285213       12.4856806       18.7285213    
         354 1   21.8499413       15.6071005       18.7285213    
         355 1   21.8499413       12.4856806       21.8499413    
         356 1   18.7285213       15.6071005       21.8499413    
         357 1   18.7285213       12.4856806       24.9713612    
         358 1   21.8499413       15.6071005       24.9713612    
         359 1   21.8499413       12.4856806       28.0927811    
         360 1   18.7285213       15.6071005       28.0927811    
         361 1   18.7285213       18.7285213       0.00000000    
         362 1   21.8499413       21.8499413       0.00000000    
         363 1   21.8499413       18.7285213       3.12142015    
         364 1   18.7285213       21.8499413       3.12142015    
         365 1   18.7285213       18.7285213       6.24284029    
         366 1   21.8499413       21.8499413       6.24284029    
         367 1   21.8499413       18.7285213       9.36426067    
         368 1   18.7285213       21.8499413       9.36426067    
         369 1   18.7285213       18.7285213       12.4856806    
         370 1   21.8499413       21.8499413       12.4856806    
         371 1   21.8499413       18.7285213       15.6071005    
         372 1   18.7285213       21.8499413       15.6071005    
         373 1   18.7285213       18.7285213       18.7285213    
         374 1   21.8499413       21.8499413       18.7285213    
         375 1   21.8499413       18.7285213       21.8499413    
         376 1   18.7285213       21.8499413       21.8499413    
         377 1   18.7285213       18.7285213       24.9713612    
         378 1   21.8499413       21.8499413       24.9713612    
         379 1   21.8499413       18.7285213       28.0927811    
         380 1   18.7285213       21.8499413       28.0927811    
         381 1   18.7285213       24.9713612       0.00000000    
         382 1   21.8499413       28.0927811       0.00000000    
         383 1   21.8499413       24.9713612       3.12142015    
         384 1   18.7285213       28.0927811       3.12142015    
         385 1   18.7285213       24.9713612       6.24284029    
         386 1   21.8499413       28.0927811       6.24284029    
         387 1   21.8499413       24.9713612       9.36426067    
         388 1   18.7285213       28.0927811       9.36426067    
         389 1   18.7285213       24.9713612       12.4856806    
         390 1   21.8499413       28.0927811       12.4856806    
         391 1   21.8499413       24.9713612       15.6071005    
         392 1   18.7285213       28.0927811       15.6071005    
         393 1   18.7285213       24.9713612       18.7285213    
         394 1   21.8499413       28.0927811       18.7285213    
         395 1   21.8499413       24.9713612       21.8499413    
         396 1   18.7285213       28.0927811       21.8499413    
         397 1   18.7285213       24.9713612       24.9713612    
         398 1   21.8499413       28.0927811       24.9713612    
         399 1   21.8499413       24.9713612       28.0927811    
         400 1   18.7285213       28.0927811       28.0927811    
         401 1   24.9713612       0.00000000       0.00000000    
         402 1   28.0927811       3.12142015       0.00000000    
         403 1   28.0927811       0.00000000       3.12142015    
         404 1   24.9713612       3.12142015       3.12142015    
         405 1   24.9713612       0.00000000       6.24284029    
         406 1   28.0927811       3.12142015       6.24284029    
         407 1   28.0927811       0.00000000       9.36426067    
         408 1   24.9713612       3.12142015       9.36426067    
         409 1   24.9713612       0.00000000       12.4856806    
         410 1   28.0927811       3.12142015       12.4856806    
         411 1   28.0927811       0.00000000       15.6071005    
         412 1   24.9713612       3.12142015       15.6071005    
         413 1   24.9713612       0.00000000       18.7285213    
         414 1   28.0927811       3.12142015       18.7285213    
         415 1   28.0927811       0.00000000       21.8499413    
         416 1   24.9713612       3.12142015       21.8499413    
         417 1   24.9713612       0.00000000       24.9713612    
         418 1   28.0927811       3.12142015       24.9713612    
         419 1   28.0927811       0.00000000       28.0927811    
         420 1   24.9713612       3.12142015       28.0927811    
         421 1   24.9713612       6.24284029       0.00000000    
         422 1   28.0927811       9.36426067       0.00000000    
         423 1   28.0927811       6.24284029       3.12142015    
         424 1   24.9713612       9.36426067       3.12142015    
         425 1   24.9713612       6.24284029       6.24284029    
         426 1   28.0927811       9.36426067       6.24284029    
         427 1   28.0927811       6.24284029       9.36426067    
         428 1   24.9713612       9.36426067       9.36426067    
         429 1   24.9713612       6.24284029       12.4856806    
         430 1   28.0927811       9.36426067       12.4856806    
         431 1   28.0927811       6.24284029       15.6071005    
         432 1   24.9713612       9.36426067       15.6071005    
         433 1   24.9713612       6.24284029       18.7285213    
         434 1   28.0927811       9.36426067       18.7285213    
         435 1   28.0927811       6.24284029       21.8499413    
         436 1   24.9713612       9.36426067       21.8499413    
         437 1   24.9713612       6.24284029       24.9713612    
         438 1   28.0927811       9.36426067       24.9713612    
         439 1   28.0927811       6.24284029       28.0927811    
         440 1   24.9713612       9.36426067       28.0927811    
         441 1   24.9713612       12.4856806       0.00000000    
         442 1   28.0927811       15.6071005       0.00000000    
         443 1   28.0927811       12.4856806       3.12142015    
         444 1   24.9713612       15.6071005       3.12142015    
         445 1   24.9713612       12.4856806       6.24284029    
         446 1   28.0927811       15.6071005       6.24284029    
         447 1   28.0927811       12.4856806       9.36426067    
         448 1   24.9713612       15.6071005       9.36426067    
         449 1   24.9713612       12.4856806       12.4856806    
         450 1   28.0927811       15.6071005       12.4856806    
         451 1   28.0927811       12.4856806       15.6071005    
         452 1   24.9713612       15.6071005       15.6071005    