           
6912 atoms

1 atom types

 0.000000 74.916 xlo xhi
 0.000000 74.916 ylo yhi
 0.000000 74.916 zlo zhi

 Masses

 1  39.948001

 Atoms
	
	   1 	1	   0.00000000       0.00000000       0.00000000    
           2 	1	   3.12150002       3.12150002       0.00000000    
           3 	1	   3.12150002       0.00000000       3.12150002    
           4 	1	   0.00000000       3.12150002       3.12150002    
           5 	1	   0.00000000       0.00000000       6.24300003    
           6 	1	   3.12150002       3.12150002       6.24300003    
           7 	1	   3.12150002       0.00000000       9.36450005    
           8 	1	   0.00000000       3.12150002       9.36450005    
           9 	1	   0.00000000       0.00000000       12.4860001    
          10 	1	   3.12150002       3.12150002       12.4860001    
          11 	1	   3.12150002       0.00000000       15.6075001    
          12 	1	   0.00000000       3.12150002       15.6075001    
          13 	1	   0.00000000       0.00000000       18.7290001    
          14 	1	   3.12150002       3.12150002       18.7290001    
          15 	1	   3.12150002       0.00000000       21.8505001    
          16 	1	   0.00000000       3.12150002       21.8505001    
          17 	1	   0.00000000       0.00000000       24.9720001    
          18 	1	   3.12150002       3.12150002       24.9720001    
          19 	1	   3.12150002       0.00000000       28.0935001    
          20 	1	   0.00000000       3.12150002       28.0935001    
          21 	1	   0.00000000       0.00000000       31.2150002    
          22 	1	   3.12150002       3.12150002       31.2150002    
          23 	1	   3.12150002       0.00000000       34.3365021    
          24 	1	   0.00000000       3.12150002       34.3365021    
          25 	1	   0.00000000       0.00000000       37.4580002    
          26 	1	   3.12150002       3.12150002       37.4580002    
          27 	1	   3.12150002       0.00000000       40.5794983    
          28 	1	   0.00000000       3.12150002       40.5794983    
          29 	1	   0.00000000       0.00000000       43.7010002    
          30 	1	   3.12150002       3.12150002       43.7010002    
          31 	1	   3.12150002       0.00000000       46.8225021    
          32 	1	   0.00000000       3.12150002       46.8225021    
          33 	1	   0.00000000       0.00000000       49.9440002    
          34 	1	   3.12150002       3.12150002       49.9440002    
          35 	1	   3.12150002       0.00000000       53.0654984    
          36 	1	   0.00000000       3.12150002       53.0654984    
          37 	1	   0.00000000       0.00000000       56.1870003    
          38 	1	   3.12150002       3.12150002       56.1870003    
          39 	1	   3.12150002       0.00000000       59.3085022    
          40 	1	   0.00000000       3.12150002       59.3085022    
          41 	1	   0.00000000       0.00000000       62.4300003    
          42 	1	   3.12150002       3.12150002       62.4300003    
          43 	1	   3.12150002       0.00000000       65.5514984    
          44 	1	   0.00000000       3.12150002       65.5514984    
          45 	1	   0.00000000       0.00000000       68.6730042    
          46 	1	   3.12150002       3.12150002       68.6730042    
          47 	1	   3.12150002       0.00000000       71.7945023    
          48 	1	   0.00000000       3.12150002       71.7945023    
          49 	1	   0.00000000       6.24300003       0.00000000    
          50 	1	   3.12150002       9.36450005       0.00000000    
          51 	1	   3.12150002       6.24300003       3.12150002    
          52 	1	   0.00000000       9.36450005       3.12150002    
          53 	1	   0.00000000       6.24300003       6.24300003    
          54 	1	   3.12150002       9.36450005       6.24300003    
          55 	1	   3.12150002       6.24300003       9.36450005    
          56 	1	   0.00000000       9.36450005       9.36450005    
          57 	1	   0.00000000       6.24300003       12.4860001    
          58 	1	   3.12150002       9.36450005       12.4860001    
          59 	1	   3.12150002       6.24300003       15.6075001    
          60 	1	   0.00000000       9.36450005       15.6075001    
          61 	1	   0.00000000       6.24300003       18.7290001    
          62 	1	   3.12150002       9.36450005       18.7290001    
          63 	1	   3.12150002       6.24300003       21.8505001    
          64 	1	   0.00000000       9.36450005       21.8505001    
          65 	1	   0.00000000       6.24300003       24.9720001    
          66 	1	   3.12150002       9.36450005       24.9720001    
          67 	1	   3.12150002       6.24300003       28.0935001    
          68 	1	   0.00000000       9.36450005       28.0935001    
          69 	1	   0.00000000       6.24300003       31.2150002    
          70 	1	   3.12150002       9.36450005       31.2150002    
          71 	1	   3.12150002       6.24300003       34.3365021    
          72 	1	   0.00000000       9.36450005       34.3365021    
          73 	1	   0.00000000       6.24300003       37.4580002    
          74 	1	   3.12150002       9.36450005       37.4580002    
          75 	1	   3.12150002       6.24300003       40.5794983    
          76 	1	   0.00000000       9.36450005       40.5794983    
          77 	1	   0.00000000       6.24300003       43.7010002    
          78 	1	   3.12150002       9.36450005       43.7010002    
          79 	1	   3.12150002       6.24300003       46.8225021    
          80 	1	   0.00000000       9.36450005       46.8225021    
          81 	1	   0.00000000       6.24300003       49.9440002    
          82 	1	   3.12150002       9.36450005       49.9440002    
          83 	1	   3.12150002       6.24300003       53.0654984    
          84 	1	   0.00000000       9.36450005       53.0654984    
          85 	1	   0.00000000       6.24300003       56.1870003    
          86 	1	   3.12150002       9.36450005       56.1870003    
          87 	1	   3.12150002       6.24300003       59.3085022    
          88 	1	   0.00000000       9.36450005       59.3085022    
          89 	1	   0.00000000       6.24300003       62.4300003    
          90 	1	   3.12150002       9.36450005       62.4300003    
          91 	1	   3.12150002       6.24300003       65.5514984    
          92 	1	   0.00000000       9.36450005       65.5514984    
          93 	1	   0.00000000       6.24300003       68.6730042    
          94 	1	   3.12150002       9.36450005       68.6730042    
          95 	1	   3.12150002       6.24300003       71.7945023    
          96 	1	   0.00000000       9.36450005       71.7945023    
          97 	1	   0.00000000       12.4860001       0.00000000    
          98 	1	   3.12150002       15.6075001       0.00000000    
          99 	1	   3.12150002       12.4860001       3.12150002    
         100 	1	   0.00000000       15.6075001       3.12150002    
         101 	1	   0.00000000       12.4860001       6.24300003    
         102 	1	   3.12150002       15.6075001       6.24300003    
         103 	1	   3.12150002       12.4860001       9.36450005    
         104 	1	   0.00000000       15.6075001       9.36450005    
         105 	1	   0.00000000       12.4860001       12.4860001    
         106 	1	   3.12150002       15.6075001       12.4860001    
         107 	1	   3.12150002       12.4860001       15.6075001    
         108 	1	   0.00000000       15.6075001       15.6075001    
         109 	1	   0.00000000       12.4860001       18.7290001    
         110 	1	   3.12150002       15.6075001       18.7290001    
         111 	1	   3.12150002       12.4860001       21.8505001    
         112 	1	   0.00000000       15.6075001       21.8505001    
         113 	1	   0.00000000       12.4860001       24.9720001    
         114 	1	   3.12150002       15.6075001       24.9720001    
         115 	1	   3.12150002       12.4860001       28.0935001    
         116 	1	   0.00000000       15.6075001       28.0935001    
         117 	1	   0.00000000       12.4860001       31.2150002    
         118 	1	   3.12150002       15.6075001       31.2150002    
         119 	1	   3.12150002       12.4860001       34.3365021    
         120 	1	   0.00000000       15.6075001       34.3365021    
         121 	1	   0.00000000       12.4860001       37.4580002    
         122 	1	   3.12150002       15.6075001       37.4580002    
         123 	1	   3.12150002       12.4860001       40.5794983    
         124 	1	   0.00000000       15.6075001       40.5794983    
         125 	1	   0.00000000       12.4860001       43.7010002    
         126 	1	   3.12150002       15.6075001       43.7010002    
         127 	1	   3.12150002       12.4860001       46.8225021    
         128 	1	   0.00000000       15.6075001       46.8225021    
         129 	1	   0.00000000       12.4860001       49.9440002    
         130 	1	   3.12150002       15.6075001       49.9440002    
         131 	1	   3.12150002       12.4860001       53.0654984    
         132 	1	   0.00000000       15.6075001       53.0654984    
         133 	1	   0.00000000       12.4860001       56.1870003    
         134 	1	   3.12150002       15.6075001       56.1870003    
         135 	1	   3.12150002       12.4860001       59.3085022    
         136 	1	   0.00000000       15.6075001       59.3085022    
         137 	1	   0.00000000       12.4860001       62.4300003    
         138 	1	   3.12150002       15.6075001       62.4300003    
         139 	1	   3.12150002       12.4860001       65.5514984    
         140 	1	   0.00000000       15.6075001       65.5514984    
         141 	1	   0.00000000       12.4860001       68.6730042    
         142 	1	   3.12150002       15.6075001       68.6730042    
         143 	1	   3.12150002       12.4860001       71.7945023    
         144 	1	   0.00000000       15.6075001       71.7945023    
         145 	1	   0.00000000       18.7290001       0.00000000    
         146 	1	   3.12150002       21.8505001       0.00000000    
         147 	1	   3.12150002       18.7290001       3.12150002    
         148 	1	   0.00000000       21.8505001       3.12150002    
         149 	1	   0.00000000       18.7290001       6.24300003    
         150 	1	   3.12150002       21.8505001       6.24300003    
         151 	1	   3.12150002       18.7290001       9.36450005    
         152 	1	   0.00000000       21.8505001       9.36450005    
         153 	1	   0.00000000       18.7290001       12.4860001    
         154 	1	   3.12150002       21.8505001       12.4860001    
         155 	1	   3.12150002       18.7290001       15.6075001    
         156 	1	   0.00000000       21.8505001       15.6075001    
         157 	1	   0.00000000       18.7290001       18.7290001    
         158 	1	   3.12150002       21.8505001       18.7290001    
         159 	1	   3.12150002       18.7290001       21.8505001    
         160 	1	   0.00000000       21.8505001       21.8505001    
         161 	1	   0.00000000       18.7290001       24.9720001    
         162 	1	   3.12150002       21.8505001       24.9720001    
         163 	1	   3.12150002       18.7290001       28.0935001    
         164 	1	   0.00000000       21.8505001       28.0935001    
         165 	1	   0.00000000       18.7290001       31.2150002    
         166 	1	   3.12150002       21.8505001       31.2150002    
         167 	1	   3.12150002       18.7290001       34.3365021    
         168 	1	   0.00000000       21.8505001       34.3365021    
         169 	1	   0.00000000       18.7290001       37.4580002    
         170 	1	   3.12150002       21.8505001       37.4580002    
         171 	1	   3.12150002       18.7290001       40.5794983    
         172 	1	   0.00000000       21.8505001       40.5794983    
         173 	1	   0.00000000       18.7290001       43.7010002    
         174 	1	   3.12150002       21.8505001       43.7010002    
         175 	1	   3.12150002       18.7290001       46.8225021    
         176 	1	   0.00000000       21.8505001       46.8225021    
         177 	1	   0.00000000       18.7290001       49.9440002    
         178 	1	   3.12150002       21.8505001       49.9440002    
         179 	1	   3.12150002       18.7290001       53.0654984    
         180 	1	   0.00000000       21.8505001       53.0654984    
         181 	1	   0.00000000       18.7290001       56.1870003    
         182 	1	   3.12150002       21.8505001       56.1870003    
         183 	1	   3.12150002       18.7290001       59.3085022    
         184 	1	   0.00000000       21.8505001       59.3085022    
         185 	1	   0.00000000       18.7290001       62.4300003    
         186 	1	   3.12150002       21.8505001       62.4300003    
         187 	1	   3.12150002       18.7290001       65.5514984    
         188 	1	   0.00000000       21.8505001       65.5514984    
         189 	1	   0.00000000       18.7290001       68.6730042    
         190 	1	   3.12150002       21.8505001       68.6730042    
         191 	1	   3.12150002       18.7290001       71.7945023    
         192 	1	   0.00000000       21.8505001       71.7945023    
         193 	1	   0.00000000       24.9720001       0.00000000    
         194 	1	   3.12150002       28.0935001       0.00000000    
         195 	1	   3.12150002       24.9720001       3.12150002    
         196 	1	   0.00000000       28.0935001       3.12150002    
         197 	1	   0.00000000       24.9720001       6.24300003    
         198 	1	   3.12150002       28.0935001       6.24300003    
         199 	1	   3.12150002       24.9720001       9.36450005    
         200 	1	   0.00000000       28.0935001       9.36450005    
         201 	1	   0.00000000       24.9720001       12.4860001    
         202 	1	   3.12150002       28.0935001       12.4860001    
         203 	1	   3.12150002       24.9720001       15.6075001    
         204 	1	   0.00000000       28.0935001       15.6075001    
         205 	1	   0.00000000       24.9720001       18.7290001    
         206 	1	   3.12150002       28.0935001       18.7290001    
         207 	1	   3.12150002       24.9720001       21.8505001    
         208 	1	   0.00000000       28.0935001       21.8505001    
         209 	1	   0.00000000       24.9720001       24.9720001    
         210 	1	   3.12150002       28.0935001       24.9720001    
         211 	1	   3.12150002       24.9720001       28.0935001    
         212 	1	   0.00000000       28.0935001       28.0935001    
         213 	1	   0.00000000       24.9720001       31.2150002    
         214 	1	   3.12150002       28.0935001       31.2150002    
         215 	1	   3.12150002       24.9720001       34.3365021    
         216 	1	   0.00000000       28.0935001       34.3365021    
         217 	1	   0.00000000       24.9720001       37.4580002    
         218 	1	   3.12150002       28.0935001       37.4580002    
         219 	1	   3.12150002       24.9720001       40.5794983    
         220 	1	   0.00000000       28.0935001       40.5794983    
         221 	1	   0.00000000       24.9720001       43.7010002    
         222 	1	   3.12150002       28.0935001       43.7010002    
         223 	1	   3.12150002       24.9720001       46.8225021    
         224 	1	   0.00000000       28.0935001       46.8225021    
         225 	1	   0.00000000       24.9720001       49.9440002    
         226 	1	   3.12150002       28.0935001       49.9440002    
         227 	1	   3.12150002       24.9720001       53.0654984    
         228 	1	   0.00000000       28.0935001       53.0654984    
         229 	1	   0.00000000       24.9720001       56.1870003    
         230 	1	   3.12150002       28.0935001       56.1870003    
         231 	1	   3.12150002       24.9720001       59.3085022    
         232 	1	   0.00000000       28.0935001       59.3085022    
         233 	1	   0.00000000       24.9720001       62.4300003    
         234 	1	   3.12150002       28.0935001       62.4300003    
         235 	1	   3.12150002       24.9720001       65.5514984    
         236 	1	   0.00000000       28.0935001       65.5514984    
         237 	1	   0.00000000       24.9720001       68.6730042    
         238 	1	   3.12150002       28.0935001       68.6730042    
         239 	1	   3.12150002       24.9720001       71.7945023    
         240 	1	   0.00000000       28.0935001       71.7945023    
         241 	1	   0.00000000       31.2150002       0.00000000    
         242 	1	   3.12150002       34.3365021       0.00000000    
         243 	1	   3.12150002       31.2150002       3.12150002    
         244 	1	   0.00000000       34.3365021       3.12150002    
         245 	1	   0.00000000       31.2150002       6.24300003    
         246 	1	   3.12150002       34.3365021       6.24300003    
         247 	1	   3.12150002       31.2150002       9.36450005    
         248 	1	   0.00000000       34.3365021       9.36450005    
         249 	1	   0.00000000       31.2150002       12.4860001    
         250 	1	   3.12150002       34.3365021       12.4860001    
         251 	1	   3.12150002       31.2150002       15.6075001    
         252 	1	   0.00000000       34.3365021       15.6075001    
         253 	1	   0.00000000       31.2150002       18.7290001    
         254 	1	   3.12150002       34.3365021       18.7290001    
         255 	1	   3.12150002       31.2150002       21.8505001    
         256 	1	   0.00000000       34.3365021       21.8505001    
         257 	1	   0.00000000       31.2150002       24.9720001    
         258 	1	   3.12150002       34.3365021       24.9720001    
         259 	1	   3.12150002       31.2150002       28.0935001    
         260 	1	   0.00000000       34.3365021       28.0935001    
         261 	1	   0.00000000       31.2150002       31.2150002    
         262 	1	   3.12150002       34.3365021       31.2150002    
         263 	1	   3.12150002       31.2150002       34.3365021    
         264 	1	   0.00000000       34.3365021       34.3365021    
         265 	1	   0.00000000       31.2150002       37.4580002    
         266 	1	   3.12150002       34.3365021       37.4580002    
         267 	1	   3.12150002       31.2150002       40.5794983    
         268 	1	   0.00000000       34.3365021       40.5794983    
         269 	1	   0.00000000       31.2150002       43.7010002    
         270 	1	   3.12150002       34.3365021       43.7010002    
         271 	1	   3.12150002       31.2150002       46.8225021    
         272 	1	   0.00000000       34.3365021       46.8225021    
         273 	1	   0.00000000       31.2150002       49.9440002    
         274 	1	   3.12150002       34.3365021       49.9440002    
         275 	1	   3.12150002       31.2150002       53.0654984    
         276 	1	   0.00000000       34.3365021       53.0654984    
         277 	1	   0.00000000       31.2150002       56.1870003    
         278 	1	   3.12150002       34.3365021       56.1870003    
         279 	1	   3.12150002       31.2150002       59.3085022    
         280 	1	   0.00000000       34.3365021       59.3085022    
         281 	1	   0.00000000       31.2150002       62.4300003    
         282 	1	   3.12150002       34.3365021       62.4300003    
         283 	1	   3.12150002       31.2150002       65.5514984    
         284 	1	   0.00000000       34.3365021       65.5514984    
         285 	1	   0.00000000       31.2150002       68.6730042    
         286 	1	   3.12150002       34.3365021       68.6730042    
         287 	1	   3.12150002       31.2150002       71.7945023    
         288 	1	   0.00000000       34.3365021       71.7945023    
         289 	1	   0.00000000       37.4580002       0.00000000    
         290 	1	   3.12150002       40.5794983       0.00000000    
         291 	1	   3.12150002       37.4580002       3.12150002    
         292 	1	   0.00000000       40.5794983       3.12150002    
         293 	1	   0.00000000       37.4580002       6.24300003    
         294 	1	   3.12150002       40.5794983       6.24300003    
         295 	1	   3.12150002       37.4580002       9.36450005    
         296 	1	   0.00000000       40.5794983       9.36450005    
         297 	1	   0.00000000       37.4580002       12.4860001    
         298 	1	   3.12150002       40.5794983       12.4860001    
         299 	1	   3.12150002       37.4580002       15.6075001    
         300 	1	   0.00000000       40.5794983       15.6075001    
         301 	1	   0.00000000       37.4580002       18.7290001    
         302 	1	   3.12150002       40.5794983       18.7290001    
         303 	1	   3.12150002       37.4580002       21.8505001    
         304 	1	   0.00000000       40.5794983       21.8505001    
         305 	1	   0.00000000       37.4580002       24.9720001    
         306 	1	   3.12150002       40.5794983       24.9720001    
         307 	1	   3.12150002       37.4580002       28.0935001    
         308 	1	   0.00000000       40.5794983       28.0935001    
         309 	1	   0.00000000       37.4580002       31.2150002    
         310 	1	   3.12150002       40.5794983       31.2150002    
         311 	1	   3.12150002       37.4580002       34.3365021    
         312 	1	   0.00000000       40.5794983       34.3365021    
         313 	1	   0.00000000       37.4580002       37.4580002    
         314 	1	   3.12150002       40.5794983       37.4580002    
         315 	1	   3.12150002       37.4580002       40.5794983    
         316 	1	   0.00000000       40.5794983       40.5794983    
         317 	1	   0.00000000       37.4580002       43.7010002    
         318 	1	   3.12150002       40.5794983       43.7010002    
         319 	1	   3.12150002       37.4580002       46.8225021    
         320 	1	   0.00000000       40.5794983       46.8225021    
         321 	1	   0.00000000       37.4580002       49.9440002    
         322 	1	   3.12150002       40.5794983       49.9440002    
         323 	1	   3.12150002       37.4580002       53.0654984    
         324 	1	   0.00000000       40.5794983       53.0654984    
         325 	1	   0.00000000       37.4580002       56.1870003    
         326 	1	   3.12150002       40.5794983       56.1870003    
         327 	1	   3.12150002       37.4580002       59.3085022    
         328 	1	   0.00000000       40.5794983       59.3085022    
         329 	1	   0.00000000       37.4580002       62.4300003    
         330 	1	   3.12150002       40.5794983       62.4300003    
         331 	1	   3.12150002       37.4580002       65.5514984    
         332 	1	   0.00000000       40.5794983       65.5514984    
         333 	1	   0.00000000       37.4580002       68.6730042    
         334 	1	   3.12150002       40.5794983       68.6730042    
         335 	1	   3.12150002       37.4580002       71.7945023    
         336 	1	   0.00000000       40.5794983       71.7945023    
         337 	1	   0.00000000       43.7010002       0.00000000    
         338 	1	   3.12150002       46.8225021       0.00000000    
         339 	1	   3.12150002       43.7010002       3.12150002    
         340 	1	   0.00000000       46.8225021       3.12150002    
         341 	1	   0.00000000       43.7010002       6.24300003    
         342 	1	   3.12150002       46.8225021       6.24300003    
         343 	1	   3.12150002       43.7010002       9.36450005    
         344 	1	   0.00000000       46.8225021       9.36450005    
         345 	1	   0.00000000       43.7010002       12.4860001    
         346 	1	   3.12150002       46.8225021       12.4860001    
         347 	1	   3.12150002       43.7010002       15.6075001    
         348 	1	   0.00000000       46.8225021       15.6075001    
         349 	1	   0.00000000       43.7010002       18.7290001    
         350 	1	   3.12150002       46.8225021       18.7290001    
         351 	1	   3.12150002       43.7010002       21.8505001    
         352 	1	   0.00000000       46.8225021       21.8505001    
         353 	1	   0.00000000       43.7010002       24.9720001    
         354 	1	   3.12150002       46.8225021       24.9720001    
         355 	1	   3.12150002       43.7010002       28.0935001    
         356 	1	   0.00000000       46.8225021       28.0935001    
         357 	1	   0.00000000       43.7010002       31.2150002    
         358 	1	   3.12150002       46.8225021       31.2150002    
         359 	1	   3.12150002       43.7010002       34.3365021    
         360 	1	   0.00000000       46.8225021       34.3365021    
         361 	1	   0.00000000       43.7010002       37.4580002    
         362 	1	   3.12150002       46.8225021       37.4580002    
         363 	1	   3.12150002       43.7010002       40.5794983    
         364 	1	   0.00000000       46.8225021       40.5794983    
         365 	1	   0.00000000       43.7010002       43.7010002    
         366 	1	   3.12150002       46.8225021       43.7010002    
         367 	1	   3.12150002       43.7010002       46.8225021    
         368 	1	   0.00000000       46.8225021       46.8225021    
         369 	1	   0.00000000       43.7010002       49.9440002    
         370 	1	   3.12150002       46.8225021       49.9440002    
         371 	1	   3.12150002       43.7010002       53.0654984    
         372 	1	   0.00000000       46.8225021       53.0654984    
         373 	1	   0.00000000       43.7010002       56.1870003    
         374 	1	   3.12150002       46.8225021       56.1870003    
         375 	1	   3.12150002       43.7010002       59.3085022    
         376 	1	   0.00000000       46.8225021       59.3085022    
         377 	1	   0.00000000       43.7010002       62.4300003    
         378 	1	   3.12150002       46.8225021       62.4300003    
         379 	1	   3.12150002       43.7010002       65.5514984    
         380 	1	   0.00000000       46.8225021       65.5514984    
         381 	1	   0.00000000       43.7010002       68.6730042    
         382 	1	   3.12150002       46.8225021       68.6730042    
         383 	1	   3.12150002       43.7010002       71.7945023    
         384 	1	   0.00000000       46.8225021       71.7945023    
         385 	1	   0.00000000       49.9440002       0.00000000    
         386 	1	   3.12150002       53.0654984       0.00000000    
         387 	1	   3.12150002       49.9440002       3.12150002    
         388 	1	   0.00000000       53.0654984       3.12150002    
         389 	1	   0.00000000       49.9440002       6.24300003    
         390 	1	   3.12150002       53.0654984       6.24300003    
         391 	1	   3.12150002       49.9440002       9.36450005    
         392 	1	   0.00000000       53.0654984       9.36450005    
         393 	1	   0.00000000       49.9440002       12.4860001    
         394 	1	   3.12150002       53.0654984       12.4860001    
         395 	1	   3.12150002       49.9440002       15.6075001    
         396 	1	   0.00000000       53.0654984       15.6075001    
         397 	1	   0.00000000       49.9440002       18.7290001    
         398 	1	   3.12150002       53.0654984       18.7290001    
         399 	1	   3.12150002       49.9440002       21.8505001    
         400 	1	   0.00000000       53.0654984       21.8505001    
         401 	1	   0.00000000       49.9440002       24.9720001    
         402 	1	   3.12150002       53.0654984       24.9720001    
         403 	1	   3.12150002       49.9440002       28.0935001    
         404 	1	   0.00000000       53.0654984       28.0935001    
         405 	1	   0.00000000       49.9440002       31.2150002    
         406 	1	   3.12150002       53.0654984       31.2150002    
         407 	1	   3.12150002       49.9440002       34.3365021    
         408 	1	   0.00000000       53.0654984       34.3365021    
         409 	1	   0.00000000       49.9440002       37.4580002    
         410 	1	   3.12150002       53.0654984       37.4580002    
         411 	1	   3.12150002       49.9440002       40.5794983    
         412 	1	   0.00000000       53.0654984       40.5794983    
         413 	1	   0.00000000       49.9440002       43.7010002    
         414 	1	   3.12150002       53.0654984       43.7010002    
         415 	1	   3.12150002       49.9440002       46.8225021    
         416 	1	   0.00000000       53.0654984       46.8225021    
         417 	1	   0.00000000       49.9440002       49.9440002    
         418 	1	   3.12150002       53.0654984       49.9440002    
         419 	1	   3.12150002       49.9440002       53.0654984    
         420 	1	   0.00000000       53.0654984       53.0654984    
         421 	1	   0.00000000       49.9440002       56.1870003    
         422 	1	   3.12150002       53.0654984       56.1870003    
         423 	1	   3.12150002       49.9440002       59.3085022    
         424 	1	   0.00000000       53.0654984       59.3085022    
         425 	1	   0.00000000       49.9440002       62.4300003    
         426 	1	   3.12150002       53.0654984       62.4300003    
         427 	1	   3.12150002       49.9440002       65.5514984    
         428 	1	   0.00000000       53.0654984       65.5514984    
         429 	1	   0.00000000       49.9440002       68.6730042    
         430 	1	   3.12150002       53.0654984       68.6730042    
         431 	1	   3.12150002       49.9440002       71.7945023    
         432 	1	   0.00000000       53.0654984       71.7945023    
         433 	1	   0.00000000       56.1870003       0.00000000    
         434 	1	   3.12150002       59.3085022       0.00000000    
         435 	1	   3.12150002       56.1870003       3.12150002    
         436 	1	   0.00000000       59.3085022       3.12150002    
         437 	1	   0.00000000       56.1870003       6.24300003    
         438 	1	   3.12150002       59.3085022       6.24300003    
         439 	1	   3.12150002       56.1870003       9.36450005    